    1C
    1UBeam Analysis with 0 Internal Ribs                                
    1UStatic Linear Analysis                                            
    1UUSER                                                              
    1UDATE              27.june.2026                                    
    1UTIME              15:41:55                                        
    1UHOST                                                              
    1UPGM               CalculiX                                        
    1UVERSION           Version 2.17                             
    1UCOMPILETIME       Thu Jul 23 21:43:50 CEST 2020                    
    1UDIR                                                               
    1UDBN                                                               
    1UMAT    1STEEL                                                     
    2C                            99                                     1
 -1         1 0.00000E+00 0.00000E+00 0.00000E+00
 -1         2 0.00000E+00 0.00000E+00 1.00000E+02
 -1         3 0.00000E+00 0.00000E+00 2.00000E+02
 -1         4 0.00000E+00 6.00000E+01 0.00000E+00
 -1         5 0.00000E+00 6.00000E+01 1.00000E+02
 -1         6 0.00000E+00 6.00000E+01 2.00000E+02
 -1         7 0.00000E+00 1.20000E+02 0.00000E+00
 -1         8 0.00000E+00 1.20000E+02 1.00000E+02
 -1         9 0.00000E+00 1.20000E+02 2.00000E+02
 -1        10 2.00000E+02 0.00000E+00 0.00000E+00
 -1        11 2.00000E+02 0.00000E+00 1.00000E+02
 -1        12 2.00000E+02 0.00000E+00 2.00000E+02
 -1        13 2.00000E+02 6.00000E+01 0.00000E+00
 -1        14 2.00000E+02 6.00000E+01 1.00000E+02
 -1        15 2.00000E+02 6.00000E+01 2.00000E+02
 -1        16 2.00000E+02 1.20000E+02 0.00000E+00
 -1        17 2.00000E+02 1.20000E+02 1.00000E+02
 -1        18 2.00000E+02 1.20000E+02 2.00000E+02
 -1        19 4.00000E+02 0.00000E+00 0.00000E+00
 -1        20 4.00000E+02 0.00000E+00 1.00000E+02
 -1        21 4.00000E+02 0.00000E+00 2.00000E+02
 -1        22 4.00000E+02 6.00000E+01 0.00000E+00
 -1        23 4.00000E+02 6.00000E+01 1.00000E+02
 -1        24 4.00000E+02 6.00000E+01 2.00000E+02
 -1        25 4.00000E+02 1.20000E+02 0.00000E+00
 -1        26 4.00000E+02 1.20000E+02 1.00000E+02
 -1        27 4.00000E+02 1.20000E+02 2.00000E+02
 -1        28 6.00000E+02 0.00000E+00 0.00000E+00
 -1        29 6.00000E+02 0.00000E+00 1.00000E+02
 -1        30 6.00000E+02 0.00000E+00 2.00000E+02
 -1        31 6.00000E+02 6.00000E+01 0.00000E+00
 -1        32 6.00000E+02 6.00000E+01 1.00000E+02
 -1        33 6.00000E+02 6.00000E+01 2.00000E+02
 -1        34 6.00000E+02 1.20000E+02 0.00000E+00
 -1        35 6.00000E+02 1.20000E+02 1.00000E+02
 -1        36 6.00000E+02 1.20000E+02 2.00000E+02
 -1        37 8.00000E+02 0.00000E+00 0.00000E+00
 -1        38 8.00000E+02 0.00000E+00 1.00000E+02
 -1        39 8.00000E+02 0.00000E+00 2.00000E+02
 -1        40 8.00000E+02 6.00000E+01 0.00000E+00
 -1        41 8.00000E+02 6.00000E+01 1.00000E+02
 -1        42 8.00000E+02 6.00000E+01 2.00000E+02
 -1        43 8.00000E+02 1.20000E+02 0.00000E+00
 -1        44 8.00000E+02 1.20000E+02 1.00000E+02
 -1        45 8.00000E+02 1.20000E+02 2.00000E+02
 -1        46 1.00000E+03 0.00000E+00 0.00000E+00
 -1        47 1.00000E+03 0.00000E+00 1.00000E+02
 -1        48 1.00000E+03 0.00000E+00 2.00000E+02
 -1        49 1.00000E+03 6.00000E+01 0.00000E+00
 -1        50 1.00000E+03 6.00000E+01 1.00000E+02
 -1        51 1.00000E+03 6.00000E+01 2.00000E+02
 -1        52 1.00000E+03 1.20000E+02 0.00000E+00
 -1        53 1.00000E+03 1.20000E+02 1.00000E+02
 -1        54 1.00000E+03 1.20000E+02 2.00000E+02
 -1        55 1.20000E+03 0.00000E+00 0.00000E+00
 -1        56 1.20000E+03 0.00000E+00 1.00000E+02
 -1        57 1.20000E+03 0.00000E+00 2.00000E+02
 -1        58 1.20000E+03 6.00000E+01 0.00000E+00
 -1        59 1.20000E+03 6.00000E+01 1.00000E+02
 -1        60 1.20000E+03 6.00000E+01 2.00000E+02
 -1        61 1.20000E+03 1.20000E+02 0.00000E+00
 -1        62 1.20000E+03 1.20000E+02 1.00000E+02
 -1        63 1.20000E+03 1.20000E+02 2.00000E+02
 -1        64 1.40000E+03 0.00000E+00 0.00000E+00
 -1        65 1.40000E+03 0.00000E+00 1.00000E+02
 -1        66 1.40000E+03 0.00000E+00 2.00000E+02
 -1        67 1.40000E+03 6.00000E+01 0.00000E+00
 -1        68 1.40000E+03 6.00000E+01 1.00000E+02
 -1        69 1.40000E+03 6.00000E+01 2.00000E+02
 -1        70 1.40000E+03 1.20000E+02 0.00000E+00
 -1        71 1.40000E+03 1.20000E+02 1.00000E+02
 -1        72 1.40000E+03 1.20000E+02 2.00000E+02
 -1        73 1.60000E+03 0.00000E+00 0.00000E+00
 -1        74 1.60000E+03 0.00000E+00 1.00000E+02
 -1        75 1.60000E+03 0.00000E+00 2.00000E+02
 -1        76 1.60000E+03 6.00000E+01 0.00000E+00
 -1        77 1.60000E+03 6.00000E+01 1.00000E+02
 -1        78 1.60000E+03 6.00000E+01 2.00000E+02
 -1        79 1.60000E+03 1.20000E+02 0.00000E+00
 -1        80 1.60000E+03 1.20000E+02 1.00000E+02
 -1        81 1.60000E+03 1.20000E+02 2.00000E+02
 -1        82 1.80000E+03 0.00000E+00 0.00000E+00
 -1        83 1.80000E+03 0.00000E+00 1.00000E+02
 -1        84 1.80000E+03 0.00000E+00 2.00000E+02
 -1        85 1.80000E+03 6.00000E+01 0.00000E+00
 -1        86 1.80000E+03 6.00000E+01 1.00000E+02
 -1        87 1.80000E+03 6.00000E+01 2.00000E+02
 -1        88 1.80000E+03 1.20000E+02 0.00000E+00
 -1        89 1.80000E+03 1.20000E+02 1.00000E+02
 -1        90 1.80000E+03 1.20000E+02 2.00000E+02
 -1        91 2.00000E+03 0.00000E+00 0.00000E+00
 -1        92 2.00000E+03 0.00000E+00 1.00000E+02
 -1        93 2.00000E+03 0.00000E+00 2.00000E+02
 -1        94 2.00000E+03 6.00000E+01 0.00000E+00
 -1        95 2.00000E+03 6.00000E+01 1.00000E+02
 -1        96 2.00000E+03 6.00000E+01 2.00000E+02
 -1        97 2.00000E+03 1.20000E+02 0.00000E+00
 -1        98 2.00000E+03 1.20000E+02 1.00000E+02
 -1        99 2.00000E+03 1.20000E+02 2.00000E+02
 -3
    3C                            40                                     1
 -1         1    1    0    1
 -2         1        10        13         4         2        11        14         5
 -1         2    1    0    1
 -2         2        11        14         5         3        12        15         6
 -1         3    1    0    1
 -2         4        13        16         7         5        14        17         8
 -1         4    1    0    1
 -2         5        14        17         8         6        15        18         9
 -1         5    1    0    1
 -2        10        19        22        13        11        20        23        14
 -1         6    1    0    1
 -2        11        20        23        14        12        21        24        15
 -1         7    1    0    1
 -2        13        22        25        16        14        23        26        17
 -1         8    1    0    1
 -2        14        23        26        17        15        24        27        18
 -1         9    1    0    1
 -2        19        28        31        22        20        29        32        23
 -1        10    1    0    1
 -2        20        29        32        23        21        30        33        24
 -1        11    1    0    1
 -2        22        31        34        25        23        32        35        26
 -1        12    1    0    1
 -2        23        32        35        26        24        33        36        27
 -1        13    1    0    1
 -2        28        37        40        31        29        38        41        32
 -1        14    1    0    1
 -2        29        38        41        32        30        39        42        33
 -1        15    1    0    1
 -2        31        40        43        34        32        41        44        35
 -1        16    1    0    1
 -2        32        41        44        35        33        42        45        36
 -1        17    1    0    1
 -2        37        46        49        40        38        47        50        41
 -1        18    1    0    1
 -2        38        47        50        41        39        48        51        42
 -1        19    1    0    1
 -2        40        49        52        43        41        50        53        44
 -1        20    1    0    1
 -2        41        50        53        44        42        51        54        45
 -1        21    1    0    1
 -2        46        55        58        49        47        56        59        50
 -1        22    1    0    1
 -2        47        56        59        50        48        57        60        51
 -1        23    1    0    1
 -2        49        58        61        52        50        59        62        53
 -1        24    1    0    1
 -2        50        59        62        53        51        60        63        54
 -1        25    1    0    1
 -2        55        64        67        58        56        65        68        59
 -1        26    1    0    1
 -2        56        65        68        59        57        66        69        60
 -1        27    1    0    1
 -2        58        67        70        61        59        68        71        62
 -1        28    1    0    1
 -2        59        68        71        62        60        69        72        63
 -1        29    1    0    1
 -2        64        73        76        67        65        74        77        68
 -1        30    1    0    1
 -2        65        74        77        68        66        75        78        69
 -1        31    1    0    1
 -2        67        76        79        70        68        77        80        71
 -1        32    1    0    1
 -2        68        77        80        71        69        78        81        72
 -1        33    1    0    1
 -2        73        82        85        76        74        83        86        77
 -1        34    1    0    1
 -2        74        83        86        77        75        84        87        78
 -1        35    1    0    1
 -2        76        85        88        79        77        86        89        80
 -1        36    1    0    1
 -2        77        86        89        80        78        87        90        81
 -1        37    1    0    1
 -2        82        91        94        85        83        92        95        86
 -1        38    1    0    1
 -2        83        92        95        86        84        93        96        87
 -1        39    1    0    1
 -2        85        94        97        88        86        95        98        89
 -1        40    1    0    1
 -2        86        95        98        89        87        96        99        90
 -3
    1PSTEP                         1           1           1          
  100CL  101 1.000000000          99                     0    1           1
 -4  DISP        4    1
 -5  D1          1    2    1    0
 -5  D2          1    2    2    0
 -5  D3          1    2    3    0
 -5  ALL         1    2    0    0    1ALL
 -1         1 0.00000E+00 0.00000E+00 0.00000E+00
 -1         2 0.00000E+00 0.00000E+00 0.00000E+00
 -1         3 0.00000E+00 0.00000E+00 0.00000E+00
 -1         4 0.00000E+00 0.00000E+00 0.00000E+00
 -1         5 0.00000E+00 0.00000E+00 0.00000E+00
 -1         6 0.00000E+00 0.00000E+00 0.00000E+00
 -1         7 0.00000E+00 0.00000E+00 0.00000E+00
 -1         8 0.00000E+00 0.00000E+00 0.00000E+00
 -1         9 0.00000E+00 0.00000E+00 0.00000E+00
 -1        10-2.91530E-01-4.26079E-02-3.13061E-01
 -1        11 5.53395E-13 1.02953E-12-2.73560E-01
 -1        12 2.91530E-01 4.26079E-02-3.13061E-01
 -1        13-2.85917E-01 8.66272E-13-3.25387E-01
 -1        14 1.66584E-15 9.76670E-13-2.85885E-01
 -1        15 2.85917E-01 9.04315E-13-3.25387E-01
 -1        16-2.91530E-01 4.26079E-02-3.13061E-01
 -1        17-5.49102E-13 1.02742E-12-2.73560E-01
 -1        18 2.91530E-01-4.26079E-02-3.13061E-01
 -1        19-5.56890E-01-9.71448E-03-1.15975E+00
 -1        20 1.09750E-12 3.73568E-12-1.15736E+00
 -1        21 5.56890E-01 9.71448E-03-1.15975E+00
 -1        22-5.65840E-01 3.65024E-12-1.16326E+00
 -1        23 3.27829E-15 3.74136E-12-1.16087E+00
 -1        24 5.65840E-01 3.73215E-12-1.16326E+00
 -1        25-5.56890E-01 9.71448E-03-1.15975E+00
 -1        26-1.09532E-12 3.73191E-12-1.15736E+00
 -1        27 5.56890E-01-9.71448E-03-1.15975E+00
 -1        28-7.95414E-01-2.66140E-02-2.53434E+00
 -1        29 1.49262E-12 8.06704E-12-2.50540E+00
 -1        30 7.95414E-01 2.66140E-02-2.53434E+00
 -1        31-7.86911E-01 7.92014E-12-2.54178E+00
 -1        32 6.44537E-15 8.02169E-12-2.51284E+00
 -1        33 7.86911E-01 8.04407E-12-2.54178E+00
 -1        34-7.95414E-01 2.66140E-02-2.53434E+00
 -1        35-1.47959E-12 8.06832E-12-2.50540E+00
 -1        36 7.95414E-01-2.66140E-02-2.53434E+00
 -1        37-9.94035E-01-1.14467E-02-4.32341E+00
 -1        38 1.86319E-12 1.36267E-11-4.32041E+00
 -1        39 9.94035E-01 1.14467E-02-4.32341E+00
 -1        40-1.00260E+00 1.35142E-11-4.32723E+00
 -1        41 4.52416E-15 1.36427E-11-4.32423E+00
 -1        42 1.00260E+00 1.36750E-11-4.32723E+00
 -1        43-9.94035E-01 1.14467E-02-4.32341E+00
 -1        44-1.85235E-12 1.36244E-11-4.32041E+00
 -1        45 9.94035E-01-1.14467E-02-4.32341E+00
 -1        46-1.17104E+00-1.65597E-02-6.50822E+00
 -1        47 2.12527E-12 2.02752E-11-6.48822E+00
 -1        48 1.17104E+00 1.65597E-02-6.50822E+00
 -1        49-1.16444E+00 2.01315E-11-6.51304E+00
 -1        50 1.01585E-14 2.02394E-11-6.49303E+00
 -1        51 1.16444E+00 2.02939E-11-6.51304E+00
 -1        52-1.17104E+00 1.65597E-02-6.50822E+00
 -1        53-2.10698E-12 2.02667E-11-6.48822E+00
 -1        54 1.17104E+00-1.65597E-02-6.50822E+00
 -1        55-1.30747E+00-8.85366E-03-8.98952E+00
 -1        56 2.33585E-12 2.76852E-11-8.98737E+00
 -1        57 1.30747E+00 8.85366E-03-8.98952E+00
 -1        58-1.31370E+00 2.75869E-11-8.99205E+00
 -1        59 8.15396E-15 2.76828E-11-8.98990E+00
 -1        60 1.31370E+00 2.77305E-11-8.99205E+00
 -1        61-1.30747E+00 8.85366E-03-8.98952E+00
 -1        62-2.31555E-12 2.76541E-11-8.98737E+00
 -1        63 1.30747E+00-8.85366E-03-8.98952E+00
 -1        64-1.42097E+00-9.61514E-03-1.17343E+01
 -1        65 2.45240E-12 3.56482E-11-1.17219E+01
 -1        66 1.42097E+00 9.61514E-03-1.17343E+01
 -1        67-1.41647E+00 3.55588E-11-1.17376E+01
 -1        68 8.05953E-15 3.55985E-11-1.17252E+01
 -1        69 1.41647E+00 3.56581E-11-1.17376E+01
 -1        70-1.42097E+00 9.61514E-03-1.17343E+01
 -1        71-2.42861E-12 3.56376E-11-1.17219E+01
 -1        72 1.42097E+00-9.61514E-03-1.17343E+01
 -1        73-1.49556E+00-4.02854E-03-1.46571E+01
 -1        74 2.49412E-12 4.38439E-11-1.46569E+01
 -1        75 1.49556E+00 4.02854E-03-1.46571E+01
 -1        76-1.50035E+00 4.38123E-11-1.46575E+01
 -1        77 1.32672E-14 4.38283E-11-1.46573E+01
 -1        78 1.50035E+00 4.38857E-11-1.46575E+01
 -1        79-1.49556E+00 4.02854E-03-1.46571E+01
 -1        80-2.46503E-12 4.38182E-11-1.46569E+01
 -1        81 1.49556E+00-4.02854E-03-1.46571E+01
 -1        82-1.54627E+00-4.28968E-03-1.77117E+01
 -1        83 2.49262E-12 5.21293E-11-1.77060E+01
 -1        84 1.54627E+00 4.28968E-03-1.77117E+01
 -1        85-1.54224E+00 5.20929E-11-1.77143E+01
 -1        86 1.28077E-14 5.20811E-11-1.77086E+01
 -1        87 1.54224E+00 5.21014E-11-1.77143E+01
 -1        88-1.54627E+00 4.28968E-03-1.77117E+01
 -1        89-2.47638E-12 5.20985E-11-1.77060E+01
 -1        90 1.54627E+00-4.28968E-03-1.77117E+01
 -1        91-1.55750E+00 1.98961E-03-2.08290E+01
 -1        92 2.49551E-12 6.03764E-11-2.08244E+01
 -1        93 1.55750E+00-1.98961E-03-2.08290E+01
 -1        94-1.56311E+00 6.03633E-11-2.08194E+01
 -1        95 1.81244E-14 6.03735E-11-2.08291E+01
 -1        96 1.56311E+00 6.03810E-11-2.08194E+01
 -1        97-1.55750E+00-1.98961E-03-2.08290E+01
 -1        98-2.44760E-12 6.03322E-11-2.08244E+01
 -1        99 1.55750E+00 1.98961E-03-2.08290E+01
 -3
    1PSTEP                         2           1           1          
  100CL  101 1.000000000          99                     0    1           1
 -4  STRESS      6    1
 -5  SXX         1    4    1    1
 -5  SYY         1    4    2    2
 -5  SZZ         1    4    3    3
 -5  SXY         1    4    1    2
 -5  SYZ         1    4    2    3
 -5  SZX         1    4    3    1
 -1         1-1.49030E+02-9.59727E+00-6.50047E+00-2.31564E+00 2.95328E-01-4.16667E+00
 -1         2 2.94065E-10 6.88427E-12 2.90346E-11 6.08957E-12 2.95328E-01-4.16667E+00
 -1         3 1.49030E+02 9.59727E+00 6.50047E+00 2.31564E+00 2.95328E-01-4.16667E+00
 -1         4-1.49030E+02-9.59727E+00-6.50047E+00 3.90910E-12-2.41898E-12-4.16667E+00
 -1         5 1.57030E-12-8.88178E-15 3.32179E-13 6.30285E-12-3.14679E-13-4.16667E+00
 -1         6 1.49030E+02 9.59727E+00 6.50047E+00 8.69660E-12 1.78965E-12-4.16667E+00
 -1         7-1.49030E+02-9.59727E+00-6.50047E+00 2.31564E+00-2.95328E-01-4.16667E+00
 -1         8-2.90925E-10-6.90203E-12-2.83702E-11 6.51612E-12-2.95328E-01-4.16667E+00
 -1         9 1.49030E+02 9.59727E+00 6.50047E+00-2.31564E+00-2.95328E-01-4.16667E+00
 -1        10-1.40956E+02-1.50189E+00-6.17174E-01-1.03019E-01 1.02167E-01-4.16667E+00
 -1        11 2.73843E-10 4.52305E-13 7.85860E-12 6.36535E-12 1.02167E-01-4.16667E+00
 -1        12 1.40956E+02 1.50189E+00 6.17174E-01 1.03019E-01 1.02167E-01-4.16667E+00
 -1        13-1.40956E+02-1.50189E+00-6.17174E-01 4.09961E-12-1.08710E-12-4.16667E+00
 -1        14 1.59162E-12-7.43849E-14 8.88178E-14 6.34542E-12 8.12891E-15-4.16667E+00
 -1        15 1.40956E+02 1.50189E+00 6.17174E-01 8.59124E-12 1.10337E-12-4.16667E+00
 -1        16-1.40956E+02-1.50189E+00-6.17174E-01 1.03019E-01-1.02167E-01-4.16667E+00
 -1        17-2.70660E-10-6.01075E-13-7.68097E-12 6.32550E-12-1.02167E-01-4.16667E+00
 -1        18 1.40956E+02 1.50189E+00 6.17174E-01-1.03019E-01-1.02167E-01-4.16667E+00
 -1        19-1.25238E+02 7.67409E-01 5.12866E-01 1.63887E-01-6.15590E-02-4.16667E+00
 -1        20 2.34046E-10-1.71640E-13-2.84084E-12 6.28564E-12-6.15590E-02-4.16667E+00
 -1        21 1.25238E+02-7.67409E-01-5.12866E-01-1.63887E-01-6.15590E-02-4.16667E+00
 -1        22-1.25238E+02 7.67409E-01 5.12866E-01 4.21063E-12 3.63241E-13-4.16667E+00
 -1        23 1.74083E-12 3.34066E-13-5.25691E-13 6.36538E-12 3.32243E-14-4.16667E+00
 -1        24 1.25238E+02-7.67409E-01-5.12866E-01 8.52013E-12-2.96790E-13-4.16667E+00
 -1        25-1.25238E+02 7.67409E-01 5.12866E-01-1.63887E-01 6.15590E-02-4.16667E+00
 -1        26-2.30564E-10 8.39773E-13 1.78946E-12 6.44512E-12 6.15590E-02-4.16667E+00
 -1        27 1.25238E+02-7.67409E-01-5.12866E-01 1.63887E-01 6.15590E-02-4.16667E+00
 -1        28-1.09627E+02-9.18986E-01-4.22864E-01-1.65617E-01 3.64418E-02-4.16667E+00
 -1        29 1.94941E-10 6.31828E-13 2.95797E-12 6.12371E-12 3.64418E-02-4.16667E+00
 -1        30 1.09627E+02 9.18986E-01 4.22864E-01 1.65617E-01 3.64418E-02-4.16667E+00
 -1        31-1.09627E+02-9.18986E-01-4.22864E-01 3.90488E-12-1.65732E-13-4.16667E+00
 -1        32 1.62714E-12 8.04912E-15-5.41234E-14 6.09923E-12-1.55619E-13-4.16667E+00
 -1        33 1.09627E+02 9.18986E-01 4.22864E-01 8.29359E-12-1.45505E-13-4.16667E+00
 -1        34-1.09627E+02-9.18986E-01-4.22864E-01 1.65617E-01-3.64418E-02-4.16667E+00
 -1        35-1.91687E-10-6.15730E-13-3.06621E-12 6.07475E-12-3.64418E-02-4.16667E+00
 -1        36 1.09627E+02 9.18986E-01 4.22864E-01-1.65617E-01-3.64418E-02-4.16667E+00
 -1        37-9.39328E+01 3.87722E-01 3.45954E-01 1.60653E-01-2.22822E-02-4.16667E+00
 -1        38 1.57407E-10-1.86406E-13-6.21725E-14 5.69261E-12-2.22822E-02-4.16667E+00
 -1        39 9.39328E+01-3.87722E-01-3.45954E-01-1.60653E-01-2.22822E-02-4.16667E+00
 -1        40-9.39328E+01 3.87722E-01 3.45954E-01 4.65972E-12 2.37955E-13-4.16667E+00
 -1        41 1.88827E-12 2.37754E-13 7.06935E-13 5.73727E-12 1.92780E-13-4.16667E+00
 -1        42 9.39328E+01-3.87722E-01-3.45954E-01 6.81483E-12 1.47618E-13-4.16667E+00
 -1        43-9.39328E+01 3.87722E-01 3.45954E-01-1.60653E-01 2.22822E-02-4.16667E+00
 -1        44-1.53630E-10 6.61915E-13 1.47604E-12 5.78193E-12 2.22822E-02-4.16667E+00
 -1        45 9.39328E+01-3.87722E-01-3.45954E-01 1.60653E-01 2.22822E-02-4.16667E+00
 -1        46-7.83023E+01-5.30895E-01-2.80835E-01-1.31446E-01 1.58435E-02-4.16667E+00
 -1        47 1.20060E-10-5.99576E-13-2.82663E-13 5.98835E-12 1.58435E-02-4.16667E+00
 -1        48 7.83023E+01 5.30895E-01 2.80835E-01 1.31446E-01 1.58435E-02-4.16667E+00
 -1        49-7.83023E+01-5.30895E-01-2.80835E-01 6.36954E-12 8.70151E-13-4.16667E+00
 -1        50 2.06768E-12-4.38316E-13 1.28320E-12 6.06855E-12 8.09745E-13-4.16667E+00
 -1        51 7.83023E+01 5.30895E-01 2.80835E-01 5.76755E-12 7.49331E-13-4.16667E+00
 -1        52-7.83023E+01-5.30895E-01-2.80835E-01 1.31446E-01-1.58435E-02-4.16667E+00
 -1        53-1.15925E-10-2.77056E-13 2.84905E-12 6.14875E-12-1.58435E-02-4.16667E+00
 -1        54 7.83023E+01 5.30895E-01 2.80835E-01-1.31446E-01-1.58435E-02-4.16667E+00
 -1        55-6.26232E+01 1.89081E-01 2.26098E-01 1.17153E-01-1.49450E-02-4.16667E+00
 -1        56 7.97993E-11-1.45089E-12-1.27770E-12 6.37695E-12-1.49450E-02-4.16667E+00
 -1        57 6.26232E+01-1.89081E-01-2.26098E-01-1.17153E-01-1.49450E-02-4.16667E+00
 -1        58-6.26232E+01 1.89081E-01 2.26098E-01 7.97784E-12 4.03164E-13-4.16667E+00
 -1        59 1.64846E-12-1.83020E-13 2.51305E-12 6.41834E-12-4.07105E-14-4.16667E+00
 -1        60 6.26232E+01-1.89081E-01-2.26098E-01 4.85884E-12-4.84585E-13-4.16667E+00
 -1        61-6.26232E+01 1.89081E-01 2.26098E-01-1.17153E-01 1.49450E-02-4.16667E+00
 -1        62-7.65024E-11 1.08485E-12 6.30379E-12 6.45972E-12 1.49450E-02-4.16667E+00
 -1        63 6.26232E+01-1.89081E-01-2.26098E-01 1.17153E-01 1.49450E-02-4.16667E+00
 -1        64-4.69812E+01-2.96633E-01-1.80268E-01-9.18904E-02 1.82404E-02-4.16667E+00
 -1        65 3.98757E-11-4.83169E-13-2.28506E-12 6.02808E-12 1.82404E-02-4.16667E+00
 -1        66 4.69812E+01 2.96633E-01 1.80268E-01 9.18904E-02 1.82404E-02-4.16667E+00
 -1        67-4.69812E+01-2.96633E-01-1.80268E-01 7.81855E-12 4.65537E-13-4.16667E+00
 -1        68 1.48503E-12 5.64028E-13 8.47045E-13 6.03399E-12-2.94095E-13-4.16667E+00
 -1        69 4.69812E+01 2.96633E-01 1.80268E-01 4.24942E-12-1.05373E-12-4.16667E+00
 -1        70-4.69812E+01-2.96633E-01-1.80268E-01 9.18904E-02-1.82404E-02-4.16667E+00
 -1        71-3.69056E-11 1.61123E-12 3.97915E-12 6.03989E-12-1.82404E-02-4.16667E+00
 -1        72 4.69812E+01 2.96633E-01 1.80268E-01-9.18904E-02-1.82404E-02-4.16667E+00
 -1        73-3.13108E+01 1.11809E-01 1.41865E-01 9.00723E-02-2.50275E-02-4.16667E+00
 -1        74 1.11218E-11-1.70332E-12-3.20738E-12 2.91242E-12-2.50275E-02-4.16667E+00
 -1        75 3.13108E+01-1.11809E-01-1.41865E-01-9.00723E-02-2.50275E-02-4.16667E+00
 -1        76-3.13108E+01 1.11809E-01 1.41865E-01 5.67099E-12 4.96533E-13-4.16667E+00
 -1        77 1.31450E-12-6.34937E-13-2.08072E-12 2.98669E-12 5.27169E-13-4.16667E+00
 -1        78 3.13108E+01-1.11809E-01-1.41865E-01 3.02383E-13 5.57790E-13-4.16667E+00
 -1        79-3.13108E+01 1.11809E-01 1.41865E-01-9.00723E-02 2.50275E-02-4.16667E+00
 -1        80-8.49276E-12 4.33445E-13-9.54070E-13 3.06095E-12 2.50275E-02-4.16667E+00
 -1        81 3.13108E+01-1.11809E-01-1.41865E-01 9.00723E-02 2.50275E-02-4.16667E+00
 -1        82-1.56622E+01-1.49484E-01-1.09469E-01-8.36639E-02 3.50917E-02-4.16667E+00
 -1        83 5.95080E-13 7.29659E-13 7.56617E-13-3.05495E-13 3.50917E-02-4.16667E+00
 -1        84 1.56622E+01 1.49484E-01 1.09469E-01 8.36639E-02 3.50917E-02-4.16667E+00
 -1        85-1.56622E+01-1.49484E-01-1.09469E-01 1.91874E-12 6.24931E-13-4.16667E+00
 -1        86 8.02025E-13 3.86713E-13 1.41540E-13-3.71595E-14 5.52211E-13-4.16667E+00
 -1        87 1.56622E+01 1.49484E-01 1.09469E-01-1.99306E-12 4.79505E-13-4.16667E+00
 -1        88-1.56622E+01-1.49484E-01-1.09469E-01 8.36639E-02-3.50917E-02-4.16667E+00
 -1        89 1.00897E-12 4.37671E-14-4.73538E-13 2.31176E-13-3.50917E-02-4.16667E+00
 -1        90 1.56622E+01 1.49484E-01 1.09469E-01-8.36639E-02-3.50917E-02-4.16667E+00
 -1        91-7.81625E+00-1.10538E-01 8.25687E-01 1.00837E-01 3.67869E-01-4.16667E+00
 -1        92-1.81188E-13 1.60234E-12 3.75255E-12-2.24827E-13 3.67869E-01-4.16667E+00
 -1        93 7.81625E+00 1.10538E-01-8.25687E-01-1.00837E-01 3.67869E-01-4.16667E+00
 -1        94-7.81625E+00-1.10538E-01 8.25687E-01-7.24809E-13 8.32778E-13-4.16667E+00
 -1        95 3.92575E-13 1.39333E-12 3.05364E-12-2.98140E-13 7.30499E-13-4.16667E+00
 -1        96 7.81625E+00 1.10538E-01-8.25687E-01 1.28529E-13 6.28220E-13-4.16667E+00
 -1        97-7.81625E+00-1.10538E-01 8.25687E-01-1.00837E-01-3.67869E-01-4.16667E+00
 -1        98 9.66338E-13 1.18432E-12 2.35473E-12-3.71453E-13-3.67869E-01-4.16667E+00
 -1        99 7.81625E+00 1.10538E-01-8.25687E-01 1.00837E-01-3.67869E-01-4.16667E+00
 -3
    1PSTEP                         3           1           1          
  100CL  101 1.000000000          99                     0    1           1
 -4  TOSTRAIN    6    1
 -5  EXX         1    4    1    1
 -5  EYY         1    4    2    2
 -5  EZZ         1    4    3    3
 -5  EXY         1    4    1    2
 -5  EYZ         1    4    2    3
 -5  EZX         1    4    3    1
 -1         1-7.21808E-04 1.77533E-04 1.97507E-04-1.49359E-05 1.90486E-06-2.68750E-05
 -1         2 1.41830E-15-4.34101E-16-2.91230E-16 3.92769E-17 1.90486E-06-2.68750E-05
 -1         3 7.21808E-04-1.77533E-04-1.97507E-04 1.49359E-05 1.90486E-06-2.68750E-05
 -1         4-7.21808E-04 1.77533E-04 1.97507E-04 2.52128E-17-1.56023E-17-2.68750E-05
 -1         5 7.39968E-18-2.81893E-18-6.09864E-19 4.06529E-17-2.02949E-18-2.68750E-05
 -1         6 7.21808E-04-1.77533E-04-1.97507E-04 5.60931E-17 1.15434E-17-2.68750E-05
 -1         7-7.21808E-04 1.77533E-04 1.97507E-04 1.49359E-05-1.90486E-06-2.68750E-05
 -1         8-1.40350E-15 4.28463E-16 2.90011E-16 4.20289E-17-1.90486E-06-2.68750E-05
 -1         9 7.21808E-04-1.77533E-04-1.97507E-04-1.49359E-05-1.90486E-06-2.68750E-05
 -1        10-7.01706E-04 1.97771E-04 2.03478E-04-6.64475E-07 6.58978E-07-2.68750E-05
 -1        11 1.35718E-15-4.06210E-16-3.58451E-16 4.10565E-17 6.58978E-07-2.68750E-05
 -1        12 7.01706E-04-1.97771E-04-2.03478E-04 6.64475E-07 6.58978E-07-2.68750E-05
 -1        13-7.01706E-04 1.97771E-04 2.03478E-04 2.64423E-17-7.01174E-18-2.68750E-05
 -1        14 7.94178E-18-2.81554E-18-1.76183E-18 4.09280E-17 5.25160E-20-2.68750E-05
 -1        15 7.01706E-04-1.97771E-04-2.03478E-04 5.54137E-17 7.11677E-18-2.68750E-05
 -1        16-7.01706E-04 1.97771E-04 2.03478E-04 6.64475E-07-6.58978E-07-2.68750E-05
 -1        17-1.34129E-15 4.00579E-16 3.54927E-16 4.07995E-17-6.58978E-07-2.68750E-05
 -1        18 7.01706E-04-1.97771E-04-2.03478E-04-6.64475E-07-6.58978E-07-2.68750E-05
 -1        19-6.28049E-04 1.84689E-04 1.83047E-04 1.05707E-06-3.97056E-07-2.68750E-05
 -1        20 1.17457E-15-3.36089E-16-3.53321E-16 4.05428E-17-3.97056E-07-2.68750E-05
 -1        21 6.28049E-04-1.84689E-04-1.83047E-04-1.05707E-06-3.97056E-07-2.68750E-05
 -1        22-6.28049E-04 1.84689E-04 1.83047E-04 2.71588E-17 2.34289E-18-2.68750E-05
 -1        23 8.97177E-18-8.47033E-20-5.63785E-18 4.10570E-17 2.14299E-19-2.68750E-05
 -1        24 6.28049E-04-1.84689E-04-1.83047E-04 5.49551E-17-1.91429E-18-2.68750E-05
 -1        25-6.28049E-04 1.84689E-04 1.83047E-04-1.05707E-06 3.97056E-07-2.68750E-05
 -1        26-1.15663E-15 3.35920E-16 3.42045E-16 4.15711E-17 3.97056E-07-2.68750E-05
 -1        27 6.28049E-04-1.84689E-04-1.83047E-04 1.05707E-06 3.97056E-07-2.68750E-05
 -1        28-5.46189E-04 1.54977E-04 1.58177E-04-1.06823E-06 2.35049E-07-2.68750E-05
 -1        29 9.69494E-16-2.83797E-16-2.68780E-16 3.94980E-17 2.35049E-07-2.68750E-05
 -1        30 5.46189E-04-1.54977E-04-1.58177E-04 1.06823E-06 2.35049E-07-2.68750E-05
 -1        31-5.46189E-04 1.54977E-04 1.58177E-04 2.51865E-17-1.06896E-18-2.68750E-05
 -1        32 8.19928E-18-2.23956E-18-2.63597E-18 3.93400E-17-1.00373E-18-2.68750E-05
 -1        33 5.46189E-04-1.54977E-04-1.58177E-04 5.34935E-17-9.38513E-19-2.68750E-05
 -1        34-5.46189E-04 1.54977E-04 1.58177E-04 1.06823E-06-2.35049E-07-2.68750E-05
 -1        35-9.53095E-16 2.79318E-16 2.63509E-16 3.91821E-17-2.35049E-07-2.68750E-05
 -1        36 5.46189E-04-1.54977E-04-1.58177E-04-1.06823E-06-2.35049E-07-2.68750E-05
 -1        37-4.70728E-04 1.37640E-04 1.37370E-04 1.03621E-06-1.43720E-07-2.68750E-05
 -1        38 7.87402E-16-2.29085E-16-2.28279E-16 3.67176E-17-1.43720E-07-2.68750E-05
 -1        39 4.70728E-04-1.37640E-04-1.37370E-04-1.03621E-06-1.43720E-07-2.68750E-05
 -1        40-4.70728E-04 1.37640E-04 1.37370E-04 3.00553E-17 1.53482E-18-2.68750E-05
 -1        41 8.07731E-18-2.57329E-18 4.50622E-19 3.70055E-17 1.24344E-18-2.68750E-05
 -1        42 4.70728E-04-1.37640E-04-1.37370E-04 4.39557E-17 9.52065E-19-2.68750E-05
 -1        43-4.70728E-04 1.37640E-04 1.37370E-04-1.03621E-06 1.43720E-07-2.68750E-05
 -1        44-7.71247E-16 2.23939E-16 2.29180E-16 3.72934E-17 1.43720E-07-2.68750E-05
 -1        45 4.70728E-04-1.37640E-04-1.37370E-04 1.03621E-06 1.43720E-07-2.68750E-05
 -1        46-3.90335E-04 1.11291E-04 1.12904E-04-8.47825E-07 1.02191E-07-2.68750E-05
 -1        47 6.01583E-16-1.76667E-16-1.74641E-16 3.86251E-17 1.02191E-07-2.68750E-05
 -1        48 3.90335E-04-1.11291E-04-1.12904E-04 8.47825E-07 1.02191E-07-2.68750E-05
 -1        49-3.90335E-04 1.11291E-04 1.12904E-04 4.10836E-17 5.61244E-18-2.68750E-05
 -1        50 9.11407E-18-7.04054E-18 4.04374E-18 3.91422E-17 5.22281E-18-2.68750E-05
 -1        51 3.90335E-04-1.11291E-04-1.12904E-04 3.72008E-17 4.83317E-18-2.68750E-05
 -1        52-3.90335E-04 1.11291E-04 1.12904E-04 8.47825E-07-1.02191E-07-2.68750E-05
 -1        53-5.83355E-16 1.62586E-16 1.82729E-16 3.96594E-17-1.02191E-07-2.68750E-05
 -1        54 3.90335E-04-1.11291E-04-1.12904E-04-8.47825E-07-1.02191E-07-2.68750E-05
 -1        55-3.13718E-04 9.14212E-05 9.16599E-05 7.55638E-07-9.63954E-08-2.68750E-05
 -1        56 4.02944E-16-1.21109E-16-1.19994E-16 4.11313E-17-9.63954E-08-2.68750E-05
 -1        57 3.13718E-04-9.14212E-05-9.16599E-05-7.55638E-07-9.63954E-08-2.68750E-05