Title: * voltage divider
Date: Sat Jun 27 13:42:25  2026
Plotname: Transient Analysis
Flags: real
No. Variables: 4
No. Points: 10008
Variables:
	0	time	time
	1	v(1)	voltage
	2	v(2)	voltage
	3	i(vin)	current
Values:
 0	0.000000000000000e+00
	1.200000000000000e+01
	6.000000000000000e+00
	-6.000000000000000e-03

 1	1.000000000000000e-08
	1.200000000000000e+01
	6.000000000000000e+00
	-6.000000000000000e-03

 2	2.000000000000000e-08
	1.200000000000000e+01
	6.000000000000000e+00
	-6.000000000000000e-03

 3	4.000000000000000e-08
	1.200000000000000e+01
	6.000000000000000e+00
	-6.000000000000000e-03

 4	8.000000000000000e-08
	1.200000000000000e+01
	6.000000000000000e+00
	-6.000000000000000e-03

 5	1.600000000000000e-07
	1.200000000000000e+01
	6.000000000000000e+00
	-6.000000000000000e-03

 6	3.200000000000000e-07
	1.200000000000000e+01
	6.000000000000000e+00
	-6.000000000000000e-03

 7	6.400000000000000e-07
	1.200000000000000e+01
	6.000000000000000e+00
	-6.000000000000000e-03

 8	1.280000000000000e-06
	1.200000000000000e+01
	6.000000000000000e+00
	-6.000000000000000e-03

 9	2.280000000000000e-06
	1.200000000000000e+01
	6.000000000000000e+00
	-6.000000000000000e-03

 10	3.280000000000000e-06
	1.200000000000000e+01
	6.000000000000000e+00
	-6.000000000000000e-03

 11	4.280000000000000e-06
	1.200000000000000e+01
	6.000000000000000e+00
	-6.000000000000000e-03

 12	5.279999999999999e-06
	1.200000000000000e+01
	6.000000000000000e+00
	-6.000000000000000e-03

 13	6.279999999999999e-06
	1.200000000000000e+01
	6.000000000000000e+00
	-6.000000000000000e-03

 14	7.279999999999999e-06
	1.200000000000000e+01
	6.000000000000000e+00
	-6.000000000000000e-03

 15	8.279999999999999e-06
	1.200000000000000e+01
	6.000000000000000e+00
	-6.000000000000000e-03

 16	9.279999999999999e-06
	1.200000000000000e+01
	6.000000000000000e+00
	-6.000000000000000e-03

 17	1.028000000000000e-05
	1.200000000000000e+01
	6.000000000000000e+00
	-6.000000000000000e-03

 18	1.128000000000000e-05
	1.200000000000000e+01
	6.000000000000000e+00
	-6.000000000000000e-03

 19	1.228000000000000e-05
	1.200000000000000e+01
	6.000000000000000e+00
	-6.000000000000000e-03

 20	1.328000000000000e-05
	1.200000000000000e+01
	6.000000000000000e+00
	-6.000000000000000e-03

 21	1.428000000000000e-05
	1.200000000000000e+01
	6.000000000000000e+00
	-6.000000000000000e-03

 22	1.528000000000000e-05
	1.200000000000000e+01
	6.000000000000000e+00
	-6.000000000000000e-03

 23	1.628000000000000e-05
	1.200000000000000e+01
	6.000000000000000e+00
	-6.000000000000000e-03

 24	1.728000000000000e-05
	1.200000000000000e+01
	6.000000000000000e+00
	-6.000000000000000e-03

 25	1.828000000000000e-05
	1.200000000000000e+01
	6.000000000000000e+00
	-6.000000000000000e-03

 26	1.928000000000001e-05
	1.200000000000000e+01
	6.000000000000000e+00
	-6.000000000000000e-03

 27	2.028000000000001e-05
	1.200000000000000e+01
	6.000000000000000e+00
	-6.000000000000000e-03

 28	2.128000000000001e-05
	1.200000000000000e+01
	6.000000000000000e+00
	-6.000000000000000e-03

 29	2.228000000000001e-05
	1.200000000000000e+01
	6.000000000000000e+00
	-6.000000000000000e-03

 30	2.328000000000001e-05
	1.200000000000000e+01
	6.000000000000000e+00
	-6.000000000000000e-03

 31	2.428000000000001e-05
	1.200000000000000e+01
	6.000000000000000e+00
	-6.000000000000000e-03

 32	2.528000000000001e-05
	1.200000000000000e+01
	6.000000000000000e+00
	-6.000000000000000e-03

 33	2.628000000000001e-05
	1.200000000000000e+01
	6.000000000000000e+00
	-6.000000000000000e-03

 34	2.728000000000001e-05
	1.200000000000000e+01
	6.000000000000000e+00
	-6.000000000000000e-03

 35	2.828000000000001e-05
	1.200000000000000e+01
	6.000000000000000e+00
	-6.000000000000000e-03

 36	2.928000000000001e-05
	1.200000000000000e+01
	6.000000000000000e+00
	-6.000000000000000e-03

 37	3.028000000000001e-05
	1.200000000000000e+01
	6.000000000000000e+00
	-6.000000000000000e-03

 38	3.128000000000001e-05
	1.200000000000000e+01
	6.000000000000000e+00
	-6.000000000000000e-03

 39	3.228000000000001e-05
	1.200000000000000e+01
	6.000000000000000e+00
	-6.000000000000000e-03

 40	3.328000000000001e-05
	1.200000000000000e+01
	6.000000000000000e+00
	-6.000000000000000e-03

 41	3.428000000000000e-05
	1.200000000000000e+01
	6.000000000000000e+00
	-6.000000000000000e-03

 42	3.528000000000000e-05
	1.200000000000000e+01
	6.000000000000000e+00
	-6.000000000000000e-03

 43	3.628000000000000e-05
	1.200000000000000e+01
	6.000000000000000e+00
	-6.000000000000000e-03

 44	3.728000000000000e-05
	1.200000000000000e+01
	6.000000000000000e+00
	-6.000000000000000e-03

 45	3.827999999999999e-05
	1.200000000000000e+01
	6.000000000000000e+00
	-6.000000000000000e-03

 46	3.927999999999999e-05
	1.200000000000000e+01
	6.000000000000000e+00
	-6.000000000000000e-03

 47	4.027999999999999e-05
	1.200000000000000e+01
	6.000000000000000e+00
	-6.000000000000000e-03

 48	4.127999999999998e-05
	1.200000000000000e+01
	6.000000000000000e+00
	-6.000000000000000e-03

 49	4.227999999999998e-05
	1.200000000000000e+01
	6.000000000000000e+00
	-6.000000000000000e-03

 50	4.327999999999998e-05
	1.200000000000000e+01
	6.000000000000000e+00
	-6.000000000000000e-03

 51	4.427999999999998e-05
	1.200000000000000e+01
	6.000000000000000e+00
	-6.000000000000000e-03

 52	4.527999999999997e-05
	1.200000000000000e+01
	6.000000000000000e+00
	-6.000000000000000e-03

 53	4.627999999999997e-05
	1.200000000000000e+01
	6.000000000000000e+00
	-6.000000000000000e-03

 54	4.727999999999997e-05
	1.200000000000000e+01
	6.000000000000000e+00
	-6.000000000000000e-03

 55	4.827999999999996e-05
	1.200000000000000e+01
	6.000000000000000e+00
	-6.000000000000000e-03

 56	4.927999999999996e-05
	1.200000000000000e+01
	6.000000000000000e+00
	-6.000000000000000e-03

 57	5.027999999999996e-05
	1.200000000000000e+01
	6.000000000000000e+00
	-6.000000000000000e-03

 58	5.127999999999996e-05
	1.200000000000000e+01
	6.000000000000000e+00
	-6.000000000000000e-03

 59	5.227999999999995e-05
	1.200000000000000e+01
	6.000000000000000e+00
	-6.000000000000000e-03

 60	5.327999999999995e-05
	1.200000000000000e+01
	6.000000000000000e+00
	-6.000000000000000e-03

 61	5.427999999999995e-05
	1.200000000000000e+01
	6.000000000000000e+00
	-6.000000000000000e-03

 62	5.527999999999995e-05
	1.200000000000000e+01
	6.000000000000000e+00
	-6.000000000000000e-03

 63	5.627999999999994e-05
	1.200000000000000e+01
	6.000000000000000e+00
	-6.000000000000000e-03

 64	5.727999999999994e-05
	1.200000000000000e+01
	6.000000000000000e+00
	-6.000000000000000e-03

 65	5.827999999999994e-05
	1.200000000000000e+01
	6.000000000000000e+00
	-6.000000000000000e-03

 66	5.927999999999993e-05
	1.200000000000000e+01
	6.000000000000000e+00
	-6.000000000000000e-03

 67	6.027999999999993e-05
	1.200000000000000e+01
	6.000000000000000e+00
	-6.000000000000000e-03

 68	6.127999999999993e-05
	1.200000000000000e+01
	6.000000000000000e+00
	-6.000000000000000e-03

 69	6.227999999999993e-05
	1.200000000000000e+01
	6.000000000000000e+00
	-6.000000000000000e-03

 70	6.327999999999992e-05
	1.200000000000000e+01
	6.000000000000000e+00
	-6.000000000000000e-03

 71	6.427999999999992e-05
	1.200000000000000e+01
	6.000000000000000e+00
	-6.000000000000000e-03

 72	6.527999999999992e-05
	1.200000000000000e+01
	6.000000000000000e+00
	-6.000000000000000e-03

 73	6.627999999999991e-05
	1.200000000000000e+01
	6.000000000000000e+00
	-6.000000000000000e-03

 74	6.727999999999991e-05
	1.200000000000000e+01
	6.000000000000000e+00
	-6.000000000000000e-03

 75	6.827999999999991e-05
	1.200000000000000e+01
	6.000000000000000e+00
	-6.000000000000000e-03

 76	6.927999999999991e-05
	1.200000000000000e+01
	6.000000000000000e+00
	-6.000000000000000e-03

 77	7.027999999999990e-05
	1.200000000000000e+01
	6.000000000000000e+00
	-6.000000000000000e-03

 78	7.127999999999990e-05
	1.200000000000000e+01
	6.000000000000000e+00
	-6.000000000000000e-03

 79	7.227999999999990e-05
	1.200000000000000e+01
	6.000000000000000e+00
	-6.000000000000000e-03

 80	7.327999999999989e-05
	1.200000000000000e+01
	6.000000000000000e+00
	-6.000000000000000e-03

 81	7.427999999999989e-05
	1.200000000000000e+01
	6.000000000000000e+00
	-6.000000000000000e-03

 82	7.527999999999989e-05
	1.200000000000000e+01
	6.000000000000000e+00
	-6.000000000000000e-03

 83	7.627999999999989e-05
	1.200000000000000e+01
	6.000000000000000e+00
	-6.000000000000000e-03

 84	7.727999999999988e-05
	1.200000000000000e+01
	6.000000000000000e+00
	-6.000000000000000e-03

 85	7.827999999999988e-05
	1.200000000000000e+01
	6.000000000000000e+00
	-6.000000000000000e-03

 86	7.927999999999988e-05
	1.200000000000000e+01
	6.000000000000000e+00
	-6.000000000000000e-03

 87	8.027999999999988e-05
	1.200000000000000e+01
	6.000000000000000e+00
	-6.000000000000000e-03

 88	8.127999999999987e-05
	1.200000000000000e+01
	6.000000000000000e+00
	-6.000000000000000e-03

 89	8.227999999999987e-05
	1.200000000000000e+01
	6.000000000000000e+00
	-6.000000000000000e-03

 90	8.327999999999987e-05
	1.200000000000000e+01
	6.000000000000000e+00
	-6.000000000000000e-03

 91	8.427999999999986e-05
	1.200000000000000e+01
	6.000000000000000e+00
	-6.000000000000000e-03

 92	8.527999999999986e-05
	1.200000000000000e+01
	6.000000000000000e+00
	-6.000000000000000e-03

 93	8.627999999999986e-05
	1.200000000000000e+01
	6.000000000000000e+00
	-6.000000000000000e-03

 94	8.727999999999986e-05
	1.200000000000000e+01
	6.000000000000000e+00
	-6.000000000000000e-03

 95	8.827999999999985e-05
	1.200000000000000e+01
	6.000000000000000e+00
	-6.000000000000000e-03

 96	8.927999999999985e-05
	1.200000000000000e+01
	6.000000000000000e+00
	-6.000000000000000e-03

 97	9.027999999999985e-05
	1.200000000000000e+01
	6.000000000000000e+00
	-6.000000000000000e-03

 98	9.127999999999984e-05
	1.200000000000000e+01
	6.000000000000000e+00
	-6.000000000000000e-03

 99	9.227999999999984e-05
	1.200000000000000e+01
	6.000000000000000e+00
	-6.000000000000000e-03

 100	9.327999999999984e-05
	1.200000000000000e+01
	6.000000000000000e+00
	-6.000000000000000e-03

 101	9.427999999999984e-05
	1.200000000000000e+01
	6.000000000000000e+00
	-6.000000000000000e-03

 102	9.527999999999983e-05
	1.200000000000000e+01
	6.000000000000000e+00
	-6.000000000000000e-03

 103	9.627999999999983e-05
	1.200000000000000e+01
	6.000000000000000e+00
	-6.000000000000000e-03

 104	9.727999999999983e-05
	1.200000000000000e+01
	6.000000000000000e+00
	-6.000000000000000e-03

 105	9.827999999999982e-05
	1.200000000000000e+01
	6.000000000000000e+00
	-6.000000000000000e-03

 106	9.927999999999982e-05
	1.200000000000000e+01
	6.000000000000000e+00
	-6.000000000000000e-03

 107	1.002799999999998e-04
	1.200000000000000e+01
	6.000000000000000e+00
	-6.000000000000000e-03

 108	1.012799999999998e-04
	1.200000000000000e+01
	6.000000000000000e+00
	-6.000000000000000e-03

 109	1.022799999999998e-04
	1.200000000000000e+01
	6.000000000000000e+00
	-6.000000000000000e-03

 110	1.032799999999998e-04
	1.200000000000000e+01
	6.000000000000000e+00
	-6.000000000000000e-03

 111	1.042799999999998e-04
	1.200000000000000e+01
	6.000000000000000e+00
	-6.000000000000000e-03

 112	1.052799999999998e-04
	1.200000000000000e+01
	6.000000000000000e+00
	-6.000000000000000e-03

 113	1.062799999999998e-04
	1.200000000000000e+01
	6.000000000000000e+00
	-6.000000000000000e-03

 114	1.072799999999998e-04
	1.200000000000000e+01
	6.000000000000000e+00
	-6.000000000000000e-03

 115	1.082799999999998e-04
	1.200000000000000e+01
	6.000000000000000e+00
	-6.000000000000000e-03

 116	1.092799999999998e-04
	1.200000000000000e+01
	6.000000000000000e+00
	-6.000000000000000e-03

 117	1.102799999999998e-04
	1.200000000000000e+01
	6.000000000000000e+00
	-6.000000000000000e-03

 118	1.112799999999998e-04
	1.200000000000000e+01
	6.000000000000000e+00
	-6.000000000000000e-03

 119	1.122799999999998e-04
	1.200000000000000e+01
	6.000000000000000e+00
	-6.000000000000000e-03

 120	1.132799999999998e-04
	1.200000000000000e+01
	6.000000000000000e+00
	-6.000000000000000e-03

 121	1.142799999999998e-04
	1.200000000000000e+01
	6.000000000000000e+00
	-6.000000000000000e-03

 122	1.152799999999998e-04
	1.200000000000000e+01
	6.000000000000000e+00
	-6.000000000000000e-03

 123	1.162799999999998e-04
	1.200000000000000e+01
	6.000000000000000e+00
	-6.000000000000000e-03

 124	1.172799999999998e-04
	1.200000000000000e+01
	6.000000000000000e+00
	-6.000000000000000e-03

 125	1.182799999999998e-04
	1.200000000000000e+01
	6.000000000000000e+00
	-6.000000000000000e-03

 126	1.192799999999998e-04
	1.200000000000000e+01
	6.000000000000000e+00
	-6.000000000000000e-03

 127	1.202799999999998e-04
	1.200000000000000e+01
	6.000000000000000e+00
	-6.000000000000000e-03

 128	1.212799999999998e-04
	1.200000000000000e+01
	6.000000000000000e+00
	-6.000000000000000e-03

 129	1.222799999999998e-04
	1.200000000000000e+01
	6.000000000000000e+00
	-6.000000000000000e-03

 130	1.232799999999998e-04
	1.200000000000000e+01
	6.000000000000000e+00
	-6.000000000000000e-03

 131	1.242799999999998e-04
	1.200000000000000e+01
	6.000000000000000e+00
	-6.000000000000000e-03

 132	1.252799999999997e-04
	1.200000000000000e+01
	6.000000000000000e+00
	-6.000000000000000e-03

 133	1.262799999999997e-04
	1.200000000000000e+01
	6.000000000000000e+00
	-6.000000000000000e-03

 134	1.272799999999997e-04
	1.200000000000000e+01
	6.000000000000000e+00
	-6.000000000000000e-03

 135	1.282799999999997e-04
	1.200000000000000e+01
	6.000000000000000e+00
	-6.000000000000000e-03

 136	1.292799999999997e-04
	1.200000000000000e+01
	6.000000000000000e+00
	-6.000000000000000e-03

 137	1.302799999999997e-04
	1.200000000000000e+01
	6.000000000000000e+00
	-6.000000000000000e-03

 138	1.312799999999997e-04
	1.200000000000000e+01
	6.000000000000000e+00
	-6.000000000000000e-03

 139	1.322799999999997e-04
	1.200000000000000e+01
	6.000000000000000e+00
	-6.000000000000000e-03

 140	1.332799999999997e-04
	1.200000000000000e+01
	6.000000000000000e+00
	-6.000000000000000e-03

 141	1.342799999999997e-04
	1.200000000000000e+01
	6.000000000000000e+00
	-6.000000000000000e-03

 142	1.352799999999997e-04
	1.200000000000000e+01
	6.000000000000000e+00
	-6.000000000000000e-03

 143	1.362799999999997e-04
	1.200000000000000e+01
	6.000000000000000e+00
	-6.000000000000000e-03

 144	1.372799999999997e-04
	1.200000000000000e+01
	6.000000000000000e+00
	-6.000000000000000e-03

 145	1.382799999999997e-04
	1.200000000000000e+01
	6.000000000000000e+00
	-6.000000000000000e-03

 146	1.392799999999997e-04
	1.200000000000000e+01
	6.000000000000000e+00
	-6.000000000000000e-03

 147	1.402799999999997e-04
	1.200000000000000e+01
	6.000000000000000e+00
	-6.000000000000000e-03

 148	1.412799999999997e-04
	1.200000000000000e+01
	6.000000000000000e+00
	-6.000000000000000e-03

 149	1.422799999999997e-04
	1.200000000000000e+01
	6.000000000000000e+00
	-6.000000000000000e-03

 150	1.432799999999997e-04
	1.200000000000000e+01
	6.000000000000000e+00
	-6.000000000000000e-03

 151	1.442799999999997e-04
	1.200000000000000e+01
	6.000000000000000e+00
	-6.000000000000000e-03

 152	1.452799999999997e-04
	1.200000000000000e+01
	6.000000000000000e+00
	-6.000000000000000e-03

 153	1.462799999999997e-04
	1.200000000000000e+01
	6.000000000000000e+00
	-6.000000000000000e-03

 154	1.472799999999997e-04
	1.200000000000000e+01
	6.000000000000000e+00
	-6.000000000000000e-03

 155	1.482799999999997e-04
	1.200000000000000e+01
	6.000000000000000e+00
	-6.000000000000000e-03

 156	1.492799999999997e-04
	1.200000000000000e+01
	6.000000000000000e+00
	-6.000000000000000e-03

 157	1.502799999999997e-04
	1.200000000000000e+01
	6.000000000000000e+00
	-6.000000000000000e-03

 158	1.512799999999997e-04
	1.200000000000000e+01
	6.000000000000000e+00
	-6.000000000000000e-03

 159	1.522799999999997e-04
	1.200000000000000e+01
	6.000000000000000e+00
	-6.000000000000000e-03

 160	1.532799999999997e-04
	1.200000000000000e+01
	6.000000000000000e+00
	-6.000000000000000e-03

 161	1.542799999999997e-04
	1.200000000000000e+01
	6.000000000000000e+00
	-6.000000000000000e-03

 162	1.552799999999997e-04
	1.200000000000000e+01
	6.000000000000000e+00
	-6.000000000000000e-03

 163	1.562799999999997e-04
	1.200000000000000e+01
	6.000000000000000e+00
	-6.000000000000000e-03

 164	1.572799999999997e-04
	1.200000000000000e+01
	6.000000000000000e+00
	-6.000000000000000e-03

 165	1.582799999999997e-04
	1.200000000000000e+01
	6.000000000000000e+00
	-6.000000000000000e-03

 166	1.592799999999997e-04
	1.200000000000000e+01
	6.000000000000000e+00
	-6.000000000000000e-03

 167	1.602799999999997e-04
	1.200000000000000e+01
	6.000000000000000e+00
	-6.000000000000000e-03

 168	1.612799999999996e-04
	1.200000000000000e+01
	6.000000000000000e+00
	-6.000000000000000e-03

 169	1.622799999999996e-04
	1.200000000000000e+01
	6.000000000000000e+00
	-6.000000000000000e-03

 170	1.632799999999996e-04
	1.200000000000000e+01
	6.000000000000000e+00
	-6.000000000000000e-03

 171	1.642799999999996e-04
	1.200000000000000e+01
	6.000000000000000e+00
	-6.000000000000000e-03

 172	1.652799999999996e-04
	1.200000000000000e+01
	6.000000000000000e+00
	-6.000000000000000e-03

 173	1.662799999999996e-04
	1.200000000000000e+01
	6.000000000000000e+00
	-6.000000000000000e-03

 174	1.672799999999996e-04
	1.200000000000000e+01
	6.000000000000000e+00
	-6.000000000000000e-03

 175	1.682799999999996e-04
	1.200000000000000e+01
	6.000000000000000e+00
	-6.000000000000000e-03

 176	1.692799999999996e-04
	1.200000000000000e+01
	6.000000000000000e+00
	-6.000000000000000e-03

 177	1.702799999999996e-04
	1.200000000000000e+01
	6.000000000000000e+00
	-6.000000000000000e-03

 178	1.712799999999996e-04
	1.200000000000000e+01
	6.000000000000000e+00
	-6.000000000000000e-03

 179	1.722799999999996e-04
	1.200000000000000e+01
	6.000000000000000e+00
	-6.000000000000000e-03

 180	1.732799999999996e-04
	1.200000000000000e+01
	6.000000000000000e+00
	-6.000000000000000e-03

 181	1.742799999999996e-04
	1.200000000000000e+01
	6.000000000000000e+00
	-6.000000000000000e-03

 182	1.752799999999996e-04
	1.200000000000000e+01
	6.000000000000000e+00
	-6.000000000000000e-03

 183	1.762799999999996e-04
	1.200000000000000e+01
	6.000000000000000e+00
	-6.000000000000000e-03

 184	1.772799999999996e-04
	1.200000000000000e+01
	6.000000000000000e+00
	-6.000000000000000e-03

 185	1.782799999999996e-04
	1.200000000000000e+01
	6.000000000000000e+00
	-6.000000000000000e-03

 186	1.792799999999996e-04
	1.200000000000000e+01
	6.000000000000000e+00
	-6.000000000000000e-03

 187	1.802799999999996e-04
	1.200000000000000e+01
	6.000000000000000e+00
	-6.000000000000000e-03

 188	1.812799999999996e-04
	1.200000000000000e+01
	6.000000000000000e+00
	-6.000000000000000e-03

 189	1.822799999999996e-04
	1.200000000000000e+01
	6.000000000000000e+00
	-6.000000000000000e-03

 190	1.832799999999996e-04
	1.200000000000000e+01
	6.000000000000000e+00
	-6.000000000000000e-03

 191	1.842799999999996e-04
	1.200000000000000e+01
	6.000000000000000e+00
	-6.000000000000000e-03

 192	1.852799999999996e-04
	1.200000000000000e+01
	6.000000000000000e+00
	-6.000000000000000e-03

 193	1.862799999999996e-04
	1.200000000000000e+01
	6.000000000000000e+00
	-6.000000000000000e-03

 194	1.872799999999996e-04
	1.200000000000000e+01
	6.000000000000000e+00
	-6.000000000000000e-03

 195	1.882799999999996e-04
	1.200000000000000e+01
	6.000000000000000e+00
	-6.000000000000000e-03

 196	1.892799999999996e-04
	1.200000000000000e+01
	6.000000000000000e+00
	-6.000000000000000e-03

 197	1.902799999999996e-04
	1.200000000000000e+01
	6.000000000000000e+00
	-6.000000000000000e-03

 198	1.912799999999996e-04
	1.200000000000000e+01
	6.000000000000000e+00
	-6.000000000000000e-03

 199	1.922799999999996e-04
	1.200000000000000e+01
	6.000000000000000e+00
	-6.000000000000000e-03

 200	1.932799999999996e-04
	1.200000000000000e+01
	6.000000000000000e+00
	-6.000000000000000e-03

 201	1.942799999999996e-04
	1.200000000000000e+01
	6.000000000000000e+00
	-6.000000000000000e-03

 202	1.952799999999996e-04
	1.200000000000000e+01
	6.000000000000000e+00
	-6.000000000000000e-03

 203	1.962799999999996e-04
	1.200000000000000e+01
	6.000000000000000e+00
	-6.000000000000000e-03

 204	1.972799999999995e-04
	1.200000000000000e+01
	6.000000000000000e+00
	-6.000000000000000e-03

 205	1.982799999999995e-04
	1.200000000000000e+01
	6.000000000000000e+00
	-6.000000000000000e-03

 206	1.992799999999995e-04
	1.200000000000000e+01
	6.000000000000000e+00
	-6.000000000000000e-03

 207	2.002799999999995e-04
	1.200000000000000e+01
	6.000000000000000e+00
	-6.000000000000000e-03

 208	2.012799999999995e-04
	1.200000000000000e+01
	6.000000000000000e+00
	-6.000000000000000e-03

 209	2.022799999999995e-04
	1.200000000000000e+01
	6.000000000000000e+00
	-6.000000000000000e-03

 210	2.032799999999995e-04
	1.200000000000000e+01
	6.000000000000000e+00
	-6.000000000000000e-03

 211	2.042799999999995e-04
	1.200000000000000e+01
	6.000000000000000e+00
	-6.000000000000000e-03

 212	2.052799999999995e-04
	1.200000000000000e+01
	6.000000000000000e+00
	-6.000000000000000e-03

 213	2.062799999999995e-04
	1.200000000000000e+01
	6.000000000000000e+00
	-6.000000000000000e-03

 214	2.072799999999995e-04
	1.200000000000000e+01
	6.000000000000000e+00
	-6.000000000000000e-03

 215	2.082799999999995e-04
	1.200000000000000e+01
	6.000000000000000e+00
	-6.000000000000000e-03

 216	2.092799999999995e-04
	1.200000000000000e+01
	6.000000000000000e+00
	-6.000000000000000e-03

 217	2.102799999999995e-04
	1.200000000000000e+01
	6.000000000000000e+00
	-6.000000000000000e-03

 218	2.112799999999995e-04
	1.200000000000000e+01
	6.000000000000000e+00
	-6.000000000000000e-03

 219	2.122799999999995e-04
	1.200000000000000e+01
	6.000000000000000e+00
	-6.000000000000000e-03

 220	2.132799999999995e-04
	1.200000000000000e+01
	6.000000000000000e+00
	-6.000000000000000e-03

 221	2.142799999999995e-04
	1.200000000000000e+01
	6.000000000000000e+00
	-6.000000000000000e-03

 222	2.152799999999995e-04
	1.200000000000000e+01
	6.000000000000000e+00
	-6.000000000000000e-03

 223	2.162799999999995e-04
	1.200000000000000e+01
	6.000000000000000e+00
	-6.000000000000000e-03

 224	2.172799999999995e-04
	1.200000000000000e+01
	6.000000000000000e+00
	-6.000000000000000e-03

 225	2.182799999999995e-04
	1.200000000000000e+01
	6.000000000000000e+00
	-6.000000000000000e-03

 226	2.192799999999995e-04
	1.200000000000000e+01
	6.000000000000000e+00
	-6.000000000000000e-03

 227	2.202799999999995e-04
	1.200000000000000e+01
	6.000000000000000e+00
	-6.000000000000000e-03

 228	2.212799999999995e-04
	1.200000000000000e+01
	6.000000000000000e+00
	-6.000000000000000e-03

 229	2.222799999999995e-04
	1.200000000000000e+01
	6.000000000000000e+00
	-6.000000000000000e-03

 230	2.232799999999995e-04
	1.200000000000000e+01
	6.000000000000000e+00
	-6.000000000000000e-03

 231	2.242799999999995e-04
	1.200000000000000e+01
	6.000000000000000e+00
	-6.000000000000000e-03

 232	2.252799999999995e-04
	1.200000000000000e+01
	6.000000000000000e+00
	-6.000000000000000e-03

 233	2.262799999999995e-04
	1.200000000000000e+01
	6.000000000000000e+00
	-6.000000000000000e-03

 234	2.272799999999995e-04
	1.200000000000000e+01
	6.000000000000000e+00
	-6.000000000000000e-03

 235	2.282799999999995e-04
	1.200000000000000e+01
	6.000000000000000e+00
	-6.000000000000000e-03

 236	2.292799999999995e-04
	1.200000000000000e+01
	6.000000000000000e+00
	-6.000000000000000e-03

 237	2.302799999999995e-04
	1.200000000000000e+01
	6.000000000000000e+00
	-6.000000000000000e-03

 238	2.312799999999995e-04
	1.200000000000000e+01
	6.000000000000000e+00
	-6.000000000000000e-03

 239	2.322799999999994e-04
	1.200000000000000e+01
	6.000000000000000e+00
	-6.000000000000000e-03

 240	2.332799999999994e-04
	1.200000000000000e+01
	6.000000000000000e+00
	-6.000000000000000e-03

 241	2.342799999999994e-04
	1.200000000000000e+01
	6.000000000000000e+00
	-6.000000000000000e-03

 242	2.352799999999994e-04
	1.200000000000000e+01
	6.000000000000000e+00
	-6.000000000000000e-03

 243	2.362799999999994e-04
	1.200000000000000e+01
	6.000000000000000e+00
	-6.000000000000000e-03

 244	2.372799999999994e-04
	1.200000000000000e+01
	6.000000000000000e+00
	-6.000000000000000e-03

 245	2.382799999999994e-04
	1.200000000000000e+01
	6.000000000000000e+00
	-6.000000000000000e-03

 246	2.392799999999994e-04
	1.200000000000000e+01
	6.000000000000000e+00
	-6.000000000000000e-03

 247	2.402799999999994e-04
	1.200000000000000e+01
	6.000000000000000e+00
	-6.000000000000000e-03

 248	2.412799999999994e-04
	1.200000000000000e+01
	6.000000000000000e+00
	-6.000000000000000e-03

 249	2.422799999999994e-04
	1.200000000000000e+01
	6.000000000000000e+00
	-6.000000000000000e-03

 250	2.432799999999994e-04
	1.200000000000000e+01
	6.000000000000000e+00
	-6.000000000000000e-03

 251	2.442799999999994e-04
	1.200000000000000e+01
	6.000000000000000e+00
	-6.000000000000000e-03

 252	2.452799999999995e-04
	1.200000000000000e+01
	6.000000000000000e+00
	-6.000000000000000e-03

 253	2.462799999999995e-04
	1.200000000000000e+01
	6.000000000000000e+00
	-6.000000000000000e-03

 254	2.472799999999995e-04
	1.200000000000000e+01
	6.000000000000000e+00
	-6.000000000000000e-03

 255	2.482799999999995e-04
	1.200000000000000e+01
	6.000000000000000e+00
	-6.000000000000000e-03

 256	2.492799999999996e-04
	1.200000000000000e+01
	6.000000000000000e+00
	-6.000000000000000e-03

 257	2.502799999999996e-04
	1.200000000000000e+01
	6.000000000000000e+00
	-6.000000000000000e-03

 258	2.512799999999996e-04
	1.200000000000000e+01
	6.000000000000000e+00
	-6.000000000000000e-03

 259	2.522799999999996e-04
	1.200000000000000e+01
	6.000000000000000e+00
	-6.000000000000000e-03

 260	2.532799999999997e-04
	1.200000000000000e+01
	6.000000000000000e+00
	-6.000000000000000e-03

 261	2.542799999999997e-04
	1.200000000000000e+01
	6.000000000000000e+00
	-6.000000000000000e-03

 262	2.552799999999997e-04
	1.200000000000000e+01
	6.000000000000000e+00
	-6.000000000000000e-03

 263	2.562799999999997e-04
	1.200000000000000e+01
	6.000000000000000e+00
	-6.000000000000000e-03

 264	2.572799999999998e-04
	1.200000000000000e+01
	6.000000000000000e+00
	-6.000000000000000e-03

 265	2.582799999999998e-04
	1.200000000000000e+01
	6.000000000000000e+00
	-6.000000000000000e-03

 266	2.592799999999998e-04
	1.200000000000000e+01
	6.000000000000000e+00
	-6.000000000000000e-03

 267	2.602799999999998e-04
	1.200000000000000e+01
	6.000000000000000e+00
	-6.000000000000000e-03

 268	2.612799999999999e-04
	1.200000000000000e+01
	6.000000000000000e+00
	-6.000000000000000e-03

 269	2.622799999999999e-04
	1.200000000000000e+01
	6.000000000000000e+00
	-6.000000000000000e-03

 270	2.632799999999999e-04
	1.200000000000000e+01
	6.000000000000000e+00
	-6.000000000000000e-03

 271	2.642799999999999e-04
	1.200000000000000e+01
	6.000000000000000e+00
	-6.000000000000000e-03

 272	2.652800000000000e-04
	1.200000000000000e+01
	6.000000000000000e+00
	-6.000000000000000e-03

 273	2.662800000000000e-04
	1.200000000000000e+01
	6.000000000000000e+00
	-6.000000000000000e-03

 274	2.672800000000000e-04
	1.200000000000000e+01
	6.000000000000000e+00
	-6.000000000000000e-03

 275	2.682800000000000e-04
	1.200000000000000e+01
	6.000000000000000e+00
	-6.000000000000000e-03

 276	2.692800000000001e-04
	1.200000000000000e+01
	6.000000000000000e+00
	-6.000000000000000e-03

 277	2.702800000000001e-04
	1.200000000000000e+01
	6.000000000000000e+00
	-6.000000000000000e-03

 278	2.712800000000001e-04
	1.200000000000000e+01
	6.000000000000000e+00
	-6.000000000000000e-03

 279	2.722800000000001e-04
	1.200000000000000e+01
	6.000000000000000e+00
	-6.000000000000000e-03

 280	2.732800000000001e-04
	1.200000000000000e+01
	6.000000000000000e+00
	-6.000000000000000e-03

 281	2.742800000000002e-04
	1.200000000000000e+01
	6.000000000000000e+00
	-6.000000000000000e-03

 282	2.752800000000002e-04
	1.200000000000000e+01
	6.000000000000000e+00
	-6.000000000000000e-03

 283	2.762800000000002e-04
	1.200000000000000e+01
	6.000000000000000e+00
	-6.000000000000000e-03

 284	2.772800000000002e-04
	1.200000000000000e+01
	6.000000000000000e+00
	-6.000000000000000e-03

 285	2.782800000000003e-04
	1.200000000000000e+01
	6.000000000000000e+00
	-6.000000000000000e-03

 286	2.792800000000003e-04
	1.200000000000000e+01
	6.000000000000000e+00
	-6.000000000000000e-03

 287	2.802800000000003e-04
	1.200000000000000e+01
	6.000000000000000e+00
	-6.000000000000000e-03

 288	2.812800000000003e-04
	1.200000000000000e+01
	6.000000000000000e+00
	-6.000000000000000e-03

 289	2.822800000000004e-04
	1.200000000000000e+01
	6.000000000000000e+00
	-6.000000000000000e-03

 290	2.832800000000004e-04
	1.200000000000000e+01
	6.000000000000000e+00
	-6.000000000000000e-03

 291	2.842800000000004e-04
	1.200000000000000e+01
	6.000000000000000e+00
	-6.000000000000000e-03

 292	2.852800000000004e-04
	1.200000000000000e+01
	6.000000000000000e+00
	-6.000000000000000e-03

 293	2.862800000000005e-04
	1.200000000000000e+01
	6.000000000000000e+00
	-6.000000000000000e-03

 294	2.872800000000005e-04
	1.200000000000000e+01
	6.000000000000000e+00
	-6.000000000000000e-03

 295	2.882800000000005e-04
	1.200000000000000e+01
	6.000000000000000e+00
	-6.000000000000000e-03

 296	2.892800000000005e-04
	1.200000000000000e+01
	6.000000000000000e+00
	-6.000000000000000e-03

 297	2.902800000000006e-04
	1.200000000000000e+01
	6.000000000000000e+00
	-6.000000000000000e-03

 298	2.912800000000006e-04
	1.200000000000000e+01
	6.000000000000000e+00
	-6.000000000000000e-03

 299	2.922800000000006e-04
	1.200000000000000e+01
	6.000000000000000e+00
	-6.000000000000000e-03

 300	2.932800000000006e-04
	1.200000000000000e+01
	6.000000000000000e+00
	-6.000000000000000e-03

 301	2.942800000000007e-04
	1.200000000000000e+01
	6.000000000000000e+00
	-6.000000000000000e-03

 302	2.952800000000007e-04
	1.200000000000000e+01
	6.000000000000000e+00
	-6.000000000000000e-03

 303	2.962800000000007e-04
	1.200000000000000e+01
	6.000000000000000e+00
	-6.000000000000000e-03

 304	2.972800000000007e-04
	1.200000000000000e+01
	6.000000000000000e+00
	-6.000000000000000e-03
